                               Psi4 1.10a1.dev76

  ==> Input File <==

--------------------------------------------------------------------------
# Any line starting with the # character is a comment line
#! Sample HF/cc-pVDZ H2O computation

memory 600 mb
import scf_lcom
import psi4

molecule h2o {
  O
  H 1 0.96
  H 1 0.96 2 104.5
}

set basis cc-pVDZ

func1 = {
  "name": "func1",
  "coef": 1.0,
  "lcom_functionals":{
    "B3LYP": 1.0
  }
}

dft_functional1 = {
  "name": "test",
  "lcom_functionals":{
      "func1": func1,
 }
}

set scf_lcom {
  print 1
}

print(psi4.driver.procedures['energy']['scf_lcom'])
E1 = energy('scf_lcom', dft_functional=dft_functional1, decompose_xc=False)
print(psi4.variable('DFT TOTAL ENERGY'))
E2 = energy('scf', dft_functional="B3LYP")
--------------------------------------------------------------------------

    Molecular point group: c2v
  Charge       = 0
  Multiplicity = 1
  Basis Set: CC-PVDZ
    Blend: CC-PVDZ
  Basis Set: (CC-PVDZ AUX)
    Blend: CC-PVDZ-JKFIT
  @DF-RKS Final Energy:   -76.42045929231054
    Total Energy =                        -76.4204592923105253
 Dipole X            :          0.0000000            0.0000000            0.0000000
 Dipole Y            :          0.0000000            0.0000000            0.0000000
 Dipole Z            :         -0.2263363            0.9783140            0.7519777
 Magnitude           :                                                    0.7519777
    Molecular point group: c2v

    Geometry (in Angstrom), charge = 0, multiplicity = 1:

       Center              X                  Y                   Z               Mass
    ------------   -----------------  -----------------  -----------------  -----------------
         O            0.000000000000     0.000000000000    -0.065775570547    15.994914619570
         H            0.000000000000    -0.759061990794     0.521953018286     1.007825032230
         H            0.000000000000     0.759061990794     0.521953018286     1.007825032230

  Charge       = 0
  Multiplicity = 1
  Basis Set: CC-PVDZ
    Blend: CC-PVDZ
  Basis Set: (CC-PVDZ AUX)
    Blend: CC-PVDZ-JKFIT

    Orbital Energies [Eh]
    ---------------------

    Doubly Occupied:

       1A1   -19.122451     2A1    -0.994149     1B2    -0.513083
       3A1    -0.364496     1B1    -0.287840

  @DF-RKS Final Energy:   -76.42045929231033

   => Energetics <=

    Nuclear Repulsion Energy =              9.1681932964243487
    One-Electron Energy =                -123.1752818326948500
    Two-Electron Energy =                  45.1626817688927531
    DFT Exchange-Correlation Energy =      -7.5760525249325781
    Empirical Dispersion Energy =           0.0000000000000000
    VV10 Nonlocal Energy =                  0.0000000000000000
    Total Energy =                        -76.4204592923103263
 Dipole X            :          0.0000000            0.0000000            0.0000000
 Dipole Y            :          0.0000000            0.0000000            0.0000000
 Dipole Z            :         -0.2263363            0.9783140            0.7519777
 Magnitude           :                                                    0.7519777
*** Psi4 exiting successfully. Buy a developer a beer!
