                               Psi4 1.10a1.dev76

  ==> Input File <==

--------------------------------------------------------------------------
# Any line starting with the # character is a comment line
#! Sample HF/cc-pVDZ H2O computation

memory 600 mb
import scf_lcom
import psi4

molecule h2o {
  O
  H 1 0.96
  H 1 0.96 2 104.5
}

set basis cc-pVDZ

func1 = {
  "name": "func1",
  "coef": 1.0,
  "lcom_functionals":{
    "BLYP": 1.0
  }
}

func2 = {
  "name": "func2",
  "coef": 1.0,
  "lcom_functionals":{
    "BLYP": 1.0
  }
}

dft_functional1 = {
  "name": "test",
  "lcom_functionals":{
      "func1": func1,
      "func2": func2,
 }
}

set scf_lcom {
  print 1
}

print(psi4.driver.procedures['energy']['scf_lcom'])
E1 = energy('scf_lcom', dft_functional=dft_functional1, decompose_xc=False)
print(psi4.variable('DFT XC ENERGY'))

psi4.core.clean()

E2 = energy('scf', dft_functional="BOP")
psi4.core.print_out(f"\nBOP ENERGY\n" )
print(psi4.variable('DFT XC ENERGY'))

psi4.core.clean()

E3 = energy('scf', dft_functional="BLYP")
psi4.core.print_out(f"\nBLYP ENERGY\n" )
print(psi4.variable('DFT XC ENERGY'))

psi4.core.clean()

dft_functional2 = {
  "name": "LCOM_REF",
  "x_functionals": {
      "GGA_X_B88": {
        "alpha": 1.0
      }
  },
  "c_functionals": {
      "GGA_C_OP_B88": {"alpha": 1.0},
      "GGA_C_LYP": {"alpha": 0.0}
  }
}

E4 = energy('scf', dft_functional=dft_functional2)
psi4.core.print_out(f"\nLCOM_REF\n" )
print(psi4.variable('DFT XC ENERGY'))

--------------------------------------------------------------------------

    Molecular point group: c2v
  Charge       = 0
  Multiplicity = 1
  Basis Set: CC-PVDZ
    Blend: CC-PVDZ
  Basis Set: (CC-PVDZ AUX)
    Blend: CC-PVDZ-JKFIT
  @DF-RKS Final Energy:   -86.02527942349467
    Total Energy =                        -86.0252794234946663
 Dipole X            :          0.0000000            0.0000000            0.0000000
 Dipole Y            :          0.0000000            0.0000000            0.0000000
 Dipole Z            :         -0.0799382            0.9783140            0.8983758
 Magnitude           :                                                    0.8983758
    Molecular point group: c2v
  Basis Set: CC-PVDZ
    Blend: CC-PVDZ
  Basis Set: (CC-PVDZ AUX)
    Blend: CC-PVDZ-JKFIT
  @DF-RKS Final Energy:   -76.39912462189842
    Total Energy =                        -76.3991246218984230
  Multiplicity = 1
  Basis Set: CC-PVDZ
    Blend: CC-PVDZ
  Basis Set: (CC-PVDZ AUX)
    Blend: CC-PVDZ-JKFIT
  @DF-RKS Final Energy:   -76.39813864134896
    Total Energy =                        -76.3981386413489645
    Molecular point group: c2v

    Geometry (in Angstrom), charge = 0, multiplicity = 1:

       Center              X                  Y                   Z               Mass
    ------------   -----------------  -----------------  -----------------  -----------------
         O            0.000000000000     0.000000000000    -0.065775570547    15.994914619570
         H            0.000000000000    -0.759061990794     0.521953018286     1.007825032230
         H            0.000000000000     0.759061990794     0.521953018286     1.007825032230

  Charge       = 0
  Multiplicity = 1
  Basis Set: CC-PVDZ
    Blend: CC-PVDZ
  Basis Set: (CC-PVDZ AUX)
    Blend: CC-PVDZ-JKFIT

    Orbital Energies [Eh]
    ---------------------

    Doubly Occupied:

       1A1   -18.760540     2A1    -0.893906     1B2    -0.450617
       3A1    -0.297680     1B1    -0.219343

  @DF-RKS Final Energy:   -76.39912462189842

   => Energetics <=

    Nuclear Repulsion Energy =              9.1681932964243487
    One-Electron Energy =                -123.1651039688301523
    Two-Electron Energy =                  46.9470075251531327
    DFT Exchange-Correlation Energy =      -9.3492214746457485
    Empirical Dispersion Energy =           0.0000000000000000
    VV10 Nonlocal Energy =                  0.0000000000000000
    Total Energy =                        -76.3991246218984230
 Dipole X            :          0.0000000            0.0000000            0.0000000
 Dipole Y            :          0.0000000            0.0000000            0.0000000
 Dipole Z            :         -0.2503381            0.9783140            0.7279759
 Magnitude           :                                                    0.7279759
*** Psi4 exiting successfully. Buy a developer a beer!
